file 16759 1440335829                                           
version 2
run PING-0-20150823-15:16:50-3089
attr configname PING
attr datetime 20150823-15:16:50
attr experiment PING
attr inifile omnetpp.ini
attr iterationvars ""
attr iterationvars2 $repetition=0
attr measurement ""
attr network test_field
attr processid 3089
attr repetition 0
attr replication #0
attr resultdir results
attr runnumber 0
attr seedset 1

vector 8  test_field.MA[0].pingApp[0]  pingTxSeq:vector  ETV
attr interpolationmode  none
attr title  "ping tx seq, vector"
vector 9  test_field.MA[0].pingApp[0]  pingRxSeq:vector  ETV
attr interpolationmode  none
attr title  "ping rx seq, vector"
vector 5  test_field.MA[0].pingApp[0]  rtt:vector  ETV
attr interpolationmode  none
attr title  "ping round-trip time, vector"
attr unit  s
vector 6  test_field.MA[0].pingApp[0]  numLost:vector  ETV
attr interpolationmode  none
attr title  "pings lost, vector"
5	866 7493 29644 571763 10.102871341483 198.002328299701 187 0.002048302558 0.102871341483 0.520329712137 0.011536491363834
6	8359 55 127185 356237 44.004994788874 124.002229301037 2 1 2 3 5
8	8414 2988 28802 571545 10 198 189 0 188 17766 2232594
9	11402 5357 29644 571763 10.102871341483 198.002328299701 187 0 188 17620 2218736
