file 38980 1440336237                                           
version 2
run TCP-0-20150823-15:23:13-3104
attr configname TCP
attr datetime 20150823-15:23:13
attr experiment TCP
attr inifile omnetpp.ini
attr iterationvars ""
attr iterationvars2 $repetition=0
attr measurement ""
attr network test_field
attr processid 3104
attr repetition 0
attr replication #0
attr resultdir results
attr runnumber 0
attr seedset 1

vector 6  test_field.MA[0].tcpApp[0]  numActiveSessions:vector  ETV
attr interpolationmode  sample-hold
attr source  sum(connect)
attr title  "number of active sessions, vector"
vector 4  test_field.MA[0].tcpApp[0]  sentPk:vector(packetBytes)  ETV
attr interpolationmode  none
attr source  sentPk
attr title  "packets sent, vector(packetBytes)"
vector 0  test_field.CN[0].tcpApp[0]  rcvdPk:vector(packetBytes)  ETV
attr interpolationmode  none
attr source  rcvdPk
attr title  "packets received, vector(packetBytes)"
vector 2  test_field.CN[0].tcpApp[0]  endToEndDelay:vector  ETV
attr interpolationmode  none
attr source  messageAge(rcvdPk)
attr title  "end-to-end delay, vector"
attr unit  s
vector 1  test_field.CN[0].tcpApp[0]  sentPk:vector(packetBytes)  ETV
attr interpolationmode  none
attr source  sentPk
attr title  "packets sent, vector(packetBytes)"
vector 3  test_field.MA[0].tcpApp[0]  rcvdPk:vector(packetBytes)  ETV
attr interpolationmode  none
attr source  rcvdPk
attr title  "packets received, vector(packetBytes)"
vector 5  test_field.MA[0].tcpApp[0]  endToEndDelay:vector  ETV
attr interpolationmode  none
attr source  messageAge(rcvdPk)
attr title  "end-to-end delay, vector"
attr unit  s
0	1562 5421 29862 669329 10.105468107852 198.223259991664 185 200 200 37000 7400000
1	6983 5606 29862 669329 10.105468107852 198.223259991664 185 1024 1024 189440 193986560
2	12589 7436 29862 669329 10.105468107852 198.223259991664 185 0.000294266967 1.000335688108 2.079049376593 2.0013435873612
3	20025 5602 30341 669766 10.111623065221 198.227930145828 185 1024 1024 189440 193986560
4	25627 5420 29620 669229 10.102724341482 198.222965216919 185 200 200 37000 7400000
5	31047 7430 30341 669766 10.111623065221 198.227930145828 185 0.004367496064 1.009217503914 3.155888287913 2.0417558520754
6	38477 503 28774 655004 10 194.097561944851 19 0 1 10 10
